                         Program Version 6.0.0  -   RELEASE  -
|  1> !B3LYP def2-TZVP
|  2>
|  3> %TDDFT
|  4>    NROOTS   30
|  5> END
|  6> *xyz 0 1
|  7> Cl         -5.30115948228516      0.81845000000000      0.00000000000000
|  8> I          -2.95506051771484      0.81845000000000      0.00000000000000
|  9> **                         ****END OF INPUT****

CARTESIAN COORDINATES (ANGSTROEM)
---------------------------------
  Cl    -5.301159    0.818450    0.000000
  I     -2.955061    0.818450    0.000000

 Total Charge           Charge          ....    0
 Multiplicity           Mult            ....    1
 Number of Electrons    NEL             ....   42
 Basis Dimension        Dim             ....   87

ORBITAL ENERGIES
----------------

  NO   OCC          E(Eh)            E(eV)
   0   2.0000    -101.546633     -2763.2244
   1   2.0000      -9.477284      -257.8900
   2   2.0000      -7.240289      -197.0183
   3   2.0000      -7.229502      -196.7248
   4   2.0000      -7.229502      -196.7248
   5   2.0000      -6.886445      -187.3897
   6   2.0000      -4.917037      -133.7994
   7   2.0000      -4.895797      -133.2214
   8   2.0000      -4.895797      -133.2214
   9   2.0000      -1.963064       -53.4177
  10   2.0000      -1.957198       -53.2581
  11   2.0000      -1.957198       -53.2581
  12   2.0000      -1.939562       -52.7782
  13   2.0000      -1.939531       -52.7773
  14   2.0000      -0.849428       -23.1141
  15   2.0000      -0.698397       -19.0043
  16   2.0000      -0.418502       -11.3880
  17   2.0000      -0.362722        -9.8702
  18   2.0000      -0.362722        -9.8702
  19   2.0000      -0.275754        -7.5037
  20   2.0000      -0.275754        -7.5037
  21   0.0000      -0.137453        -3.7403
  22   0.0000       0.130947         3.5633
  23   0.0000       0.155063         4.2195
  24   0.0000       0.155063         4.2195
  25   0.0000       0.193216         5.2577

MULLIKEN ATOMIC CHARGES
-----------------------
   0 Cl:   -0.187607
   1 I :    0.187607
Sum of atomic charges:    0.0000000

LOEWDIN ATOMIC CHARGES
----------------------
   0 Cl:   -0.068118
   1 I :    0.068118

  Mayer bond orders larger than 0.100000
B(  0-Cl,  1-I ) :   1.0725

----------------------------------------------------------------------------------------------------
                     ABSORPTION SPECTRUM VIA TRANSITION ELECTRIC DIPOLE MOMENTS
----------------------------------------------------------------------------------------------------
     Transition      Energy     Energy  Wavelength fosc(D2)      D2        DX        DY        DZ
                      (eV)      (cm-1)    (nm)                 (au**2)    (au)      (au)      (au)
----------------------------------------------------------------------------------------------------
  0-1A  ->  1-1A    2.638109   21277.8   470.0   0.000157405   0.00244   0.00000   0.04927   0.00277
  0-1A  ->  2-1A    2.638109   21277.8   470.0   0.000157405   0.00244  -0.00000  -0.00277   0.04927
  0-1A  ->  3-1A    4.880028   39360.1   254.1   0.001727760   0.01445  -0.00000  -0.04625   0.11096
  0-1A  ->  4-1A    4.880028   39360.1   254.1   0.001727760   0.01445   0.00000   0.11096   0.04625
  0-1A  ->  5-1A    8.359712   67425.6   148.3   0.656962537   3.20768  -1.79100  -0.00000  -0.00000
  0-1A  ->  6-1A    9.848247   79431.5   125.9   0.010390015   0.04306   0.00000   0.20749   0.00293
  0-1A  ->  7-1A    9.848247   79431.5   125.9   0.010390015   0.04306   0.00000   0.00293  -0.20749
  0-1A  ->  8-1A   10.443079   84229.1   118.7   0.000000000   0.00000   0.00000  -0.00000  -0.00000
  0-1A  ->  9-1A   10.444006   84236.6   118.7   0.000000000   0.00000  -0.00000  -0.00000   0.00000
  0-1A  -> 10-1A   10.507609   84749.6   118.0   0.000000000   0.00000  -0.00000   0.00000   0.00000
  0-1A  -> 11-1A   11.330369   91385.6   109.4   0.368118527   1.32613  -1.15158  -0.00000  -0.00000
  0-1A  -> 12-1A   11.371063   91713.8   109.0   0.000000000   0.00000   0.00000   0.00000  -0.00000
  0-1A  -> 13-1A   11.388689   91856.0   108.9   0.000000000   0.00000  -0.00000  -0.00000  -0.00000
  0-1A  -> 14-1A   11.390166   91867.9   108.9   0.000000000   0.00000   0.00000   0.00000  -0.00000
  0-1A  -> 15-1A   11.542855   93099.4   107.4   0.000001678   0.00001  -0.00000   0.00184   0.00159
  0-1A  -> 16-1A   11.542855   93099.4   107.4   0.000001678   0.00001   0.00000  -0.00159   0.00184
  0-1A  -> 17-1A   11.712843   94470.5   105.9   0.025871567   0.09016   0.00000  -0.29971  -0.01816
  0-1A  -> 18-1A   11.712843   94470.5   105.9   0.025871567   0.09016   0.00000   0.01816  -0.29971
  0-1A  -> 19-1A   12.349231   99603.3   100.4   0.010522627   0.03478  -0.00000  -0.08546   0.16576
  0-1A  -> 20-1A   12.349231   99603.3   100.4   0.010522626   0.03478   0.00000   0.16576   0.08546
  0-1A  -> 21-1A   13.006665  104905.8    95.3   0.000000000   0.00000  -0.00000   0.00000   0.00000
  0-1A  -> 22-1A   13.006997  104908.5    95.3   0.000000000   0.00000  -0.00000  -0.00000   0.00000
  0-1A  -> 23-1A   13.008607  104921.5    95.3   0.000000000   0.00000   0.00000   0.00000  -0.00000
  0-1A  -> 24-1A   13.020323  105016.0    95.2   0.325810771   1.02138  -0.00000  -1.00339  -0.12078
  0-1A  -> 25-1A   13.020323  105016.0    95.2   0.325810771   1.02138  -0.00000   0.12078  -1.00339
  0-1A  -> 26-1A   13.220866  106633.5    93.8   0.376614916   1.16273  -1.07830   0.00000   0.00000
  0-1A  -> 27-1A   13.424019  108272.0    92.4   0.637940060   1.93972  -1.39274   0.00000   0.00000
  0-1A  -> 28-1A   13.767389  111041.5    90.1   0.000000000   0.00000   0.00000  -0.00000  -0.00000
  0-1A  -> 29-1A   13.814630  111422.5    89.7   0.000000000   0.00000   0.00000   0.00000  -0.00000
  0-1A  -> 30-1A   13.815868  111432.5    89.7   0.000000000   0.00000  -0.00000   0.00000  -0.00000

FINAL SINGLE POINT ENERGY      -757.771458814254

DIPOLE MOMENT
-------------

Method             : SCF
Type of density    : Electron Density
Multiplicity       :   1
Irrep              :   0
Energy             :  -757.8684075411711092 Eh
Relativity type    :
Basis              : AO
                                X                 Y                 Z
Electronic contribution:     35.183602881      -0.000000007       0.000000007
Nuclear contribution   :    -34.707384499      -0.000000000       0.000000000
                        -----------------------------------------
Total Dipole Moment    :      0.476218382      -0.000000007       0.000000007
                        -----------------------------------------
Magnitude (a.u.)       :      0.476218382
Magnitude (Debye)      :      1.210450930

Rotational constants in cm-1:             0.000000             0.110522             0.110522
Rotational constants in MHz :             0.000000          3313.375476          3313.375476

                             ****ORCA TERMINATED NORMALLY****
TOTAL RUN TIME: 0 days 0 hours 0 minutes 14 seconds 372 msec
