                         Program Version 6.0.0  -   RELEASE  -
|  1> !B3LYP def2-TZVP OPT FREQ
|  2>
|  3> *xyz 0 1
|  4> Cl        -5.40311        0.81845        0.00000
|  5> I         -2.85311        0.81845        0.00000
|  6> **                         ****END OF INPUT****
 Total Charge           Charge          ....    0
 Multiplicity           Mult            ....    1
 Number of Electrons    NEL             ....   42
FINAL SINGLE POINT ENERGY      -757.860205245643
FINAL SINGLE POINT ENERGY      -757.867908461015
FINAL SINGLE POINT ENERGY      -757.868243878735
FINAL SINGLE POINT ENERGY      -757.868406154635
FINAL SINGLE POINT ENERGY      -757.868407546458
                    ***********************HURRAY********************

CARTESIAN COORDINATES (ANGSTROEM)
---------------------------------
  Cl    -5.301159    0.818450    0.000000
  I     -2.955061    0.818450    0.000000

 Multiplicity           Mult            ....    1
 Number of Electrons    NEL             ....   42
 Basis Dimension        Dim             ....   87

ORBITAL ENERGIES
----------------

  NO   OCC          E(Eh)            E(eV)
   0   2.0000    -101.546747     -2763.2275
   1   2.0000      -9.477354      -257.8919
   2   2.0000      -7.240361      -197.0202
   3   2.0000      -7.229576      -196.7268
   4   2.0000      -7.229576      -196.7268
   5   2.0000      -6.886573      -187.3932
   6   2.0000      -4.917161      -133.8028
   7   2.0000      -4.895921      -133.2248
   8   2.0000      -4.895921      -133.2248
   9   2.0000      -1.963180       -53.4208
  10   2.0000      -1.957314       -53.2612
  11   2.0000      -1.957314       -53.2612
  12   2.0000      -1.939678       -52.7813
  13   2.0000      -1.939647       -52.7805
  14   2.0000      -0.849471       -23.1153
  15   2.0000      -0.698446       -19.0057
  16   2.0000      -0.418536       -11.3889
  17   2.0000      -0.362754        -9.8710
  18   2.0000      -0.362754        -9.8710
  19   2.0000      -0.275793        -7.5047
  20   2.0000      -0.275793        -7.5047
  21   0.0000      -0.137491        -3.7413
  22   0.0000       0.130928         3.5627
  23   0.0000       0.155040         4.2189
  24   0.0000       0.155040         4.2189
  25   0.0000       0.193189         5.2569

MULLIKEN ATOMIC CHARGES
-----------------------
   0 Cl:   -0.187609
   1 I :    0.187609
Sum of atomic charges:    0.0000000

LOEWDIN ATOMIC CHARGES
----------------------
   0 Cl:   -0.068118
   1 I :    0.068118

  Mayer bond orders larger than 0.100000
B(  0-Cl,  1-I ) :   1.0725

FINAL SINGLE POINT ENERGY      -757.868407553902

DIPOLE MOMENT
-------------

Method             : SCF
Type of density    : Electron Density
Multiplicity       :   1
Irrep              :   0
Energy             :  -757.8684075539022160 Eh
Relativity type    :
Basis              : AO
                                X                 Y                 Z
Electronic contribution:     35.183666886      -0.000000002       0.000000001
Nuclear contribution   :    -34.707384499      -0.000000000       0.000000000
                        -----------------------------------------
Total Dipole Moment    :      0.476282387      -0.000000002       0.000000001
                        -----------------------------------------
Magnitude (a.u.)       :      0.476282387
Magnitude (Debye)      :      1.210613618

VIBRATIONAL FREQUENCIES
-----------------------

Scaling factor for frequencies =  1.000000000  (already applied!)

     0:       0.00 cm**-1
     1:       0.00 cm**-1
     2:       0.00 cm**-1
     3:       0.00 cm**-1
     4:       0.00 cm**-1
     5:     374.18 cm**-1

IR SPECTRUM
-----------

 Mode   freq       eps      Int      T**2         TX        TY        TZ
       cm**-1   L/(mol*cm) km/mol    a.u.
----------------------------------------------------------------------------
  5:    374.18   0.001393    7.04  0.001162  ( 0.034082 -0.000000 -0.000000)

--------------------------
THERMOCHEMISTRY AT 298.15K
--------------------------

Temperature         ...   298.15 K
Pressure            ...     1.00 atm
Total Mass          ...   162.35 AMU
Quasi RRHO          ...     True
Cut-Off Frequency   ...     1.00 cm^-1
The molecule is recognized as being linear

Throughout the following assumptions are being made:
  (1) The electronic state is orbitally nondegenerate
  (2) There are no thermally accessible electronically excited states
  (3) Hindered rotations indicated by low frequency modes are not
      treated as such but are treated as vibrations and this may
      cause some error
  (4) All equations used are the standard statistical mechanics
      equations for an ideal gas
  (5) All vibrations are strictly harmonic

freq.     374.18  E(vib)   ...       0.21

------------
INNER ENERGY
------------

The inner energy is: U= E(el) + E(ZPE) + E(vib) + E(rot) + E(trans)
    E(el)   - is the total energy from the electronic structure calculation
              = E(kin-el) + E(nuc-el) + E(el-el) + E(nuc-nuc)
    E(ZPE)  - the the zero temperature vibrational energy from the frequency calculation
    E(vib)  - the the finite temperature correction to E(ZPE) due to population
              of excited vibrational states
    E(rot)  - is the rotational thermal energy
    E(trans)- is the translational thermal energy

Summary of contributions to the inner energy U:
Electronic energy                ...   -757.86840755 Eh
Zero point energy                ...      0.00085244 Eh       0.53 kcal/mol
Thermal vibrational correction   ...      0.00033536 Eh       0.21 kcal/mol
Thermal rotational correction    ...      0.00094418 Eh       0.59 kcal/mol
Thermal translational correction ...      0.00141627 Eh       0.89 kcal/mol
-----------------------------------------------------------------------
Total thermal energy                   -757.86485930 Eh

Summary of corrections to the electronic energy:
(perhaps to be used in another calculation)
Total thermal correction                  0.00269582 Eh       1.69 kcal/mol
Non-thermal (ZPE) correction              0.00085244 Eh       0.53 kcal/mol
-----------------------------------------------------------------------
Total correction                          0.00354825 Eh       2.23 kcal/mol

--------
ENTHALPY
--------

The enthalpy is H = U + kB*T
                kB is Boltzmann's constant
Total thermal energy              ...   -757.86485930 Eh
Thermal Enthalpy correction       ...      0.00094421 Eh       0.59 kcal/mol
-----------------------------------------------------------------------
Total Enthalpy                    ...   -757.86391509 Eh

Note: Rotational entropy computed according to Herzberg
Infrared and Raman Spectra, Chapter V,1, Van Nostrand Reinhold, 1945
Point Group:  C(inf)v, Symmetry Number:   1
Rotational constants in cm-1:     0.000000     0.110522     0.110522

Vibrational entropy computed according to the QRRHO of S. Grimme
Chem.Eur.J. 2012 18 9955 using a reference frequency of 100.0 cm-1

-------
ENTROPY
-------

The entropy contributions are T*S = T*(S(el)+S(vib)+S(rot)+S(trans))
     S(el)   - electronic entropy
     S(vib)  - vibrational entropy
     S(rot)  - rotational entropy
     S(trans)- translational entropy
The entropies will be listed as multiplied by the temperature to get
units of energy

Electronic entropy                ...      0.00000000 Eh      0.00 kcal/mol
Vibrational entropy               ...      0.00050606 Eh      0.32 kcal/mol
Rotational entropy                ...      0.00805986 Eh      5.06 kcal/mol
Translational entropy             ...      0.01955757 Eh     12.27 kcal/mol
-----------------------------------------------------------------------
Final entropy term                ...      0.02812349 Eh     17.65 kcal/mol

-------------------
GIBBS FREE ENERGY
-------------------

The Gibbs free energy is G = H - T*S

Total enthalpy                    ...   -757.86391509 Eh
Total entropy correction          ...     -0.02812349 Eh    -17.65 kcal/mol
-----------------------------------------------------------------------
Final Gibbs free energy         ...   -757.89203859 Eh

For completeness - the Gibbs free energy minus the electronic energy
G-E(el)                           ...     -0.02363103 Eh    -14.83 kcal/mol

                             ****ORCA TERMINATED NORMALLY****
TOTAL RUN TIME: 0 days 0 hours 1 minutes 19 seconds 194 msec
