                         Program Version 6.0.0  -   RELEASE  -
|  1> !B3LYP def2-TZVP
|  2>
|  3> %CPCM SMD TRUE
|  4>       SMDSOLVENT "CH2Cl2"
|  5> END
|  6>
|  7> %TDDFT
|  8>    NROOTS   30
|  9> END
| 10>
| 11> *xyz 0 1
| 12> Cl         -3.13499722339840      0.29230411390000      0.00000000000000
| 13> I          -0.77443805210160      0.29230411390000      0.00000000000000
| 14> **                         ****END OF INPUT****

CARTESIAN COORDINATES (ANGSTROEM)
---------------------------------
  Cl    -3.134997    0.292304    0.000000
  I     -0.774438    0.292304    0.000000

 Total Charge           Charge          ....    0
 Multiplicity           Mult            ....    1
 Number of Electrons    NEL             ....   42
 Basis Dimension        Dim             ....   87

ORBITAL ENERGIES
----------------

  NO   OCC          E(Eh)            E(eV)
   0   2.0000    -101.537133     -2762.9658
   1   2.0000      -9.467849      -257.6333
   2   2.0000      -7.230427      -196.7499
   3   2.0000      -7.220306      -196.4745
   4   2.0000      -7.220306      -196.4745
   5   2.0000      -6.873920      -187.0489
   6   2.0000      -4.905291      -133.4797
   7   2.0000      -4.882819      -132.8682
   8   2.0000      -4.882819      -132.8682
   9   2.0000      -1.950902       -53.0867
  10   2.0000      -1.944833       -52.9216
  11   2.0000      -1.944833       -52.9216
  12   2.0000      -1.926358       -52.4189
  13   2.0000      -1.926328       -52.4181
  14   2.0000      -0.838796       -22.8248
  15   2.0000      -0.685615       -18.6565
  16   2.0000      -0.405326       -11.0295
  17   2.0000      -0.353928        -9.6309
  18   2.0000      -0.353928        -9.6309
  19   2.0000      -0.263971        -7.1830
  20   2.0000      -0.263971        -7.1830
  21   0.0000      -0.123577        -3.3627
  22   0.0000       0.148958         4.0533
  23   0.0000       0.168609         4.5881
  24   0.0000       0.168609         4.5881
  25   0.0000       0.205603         5.5948

MULLIKEN ATOMIC CHARGES
-----------------------
   0 Cl:   -0.231805
   1 I :    0.231805
Sum of atomic charges:    0.0000000

LOEWDIN ATOMIC CHARGES
----------------------
   0 Cl:   -0.110605
   1 I :    0.110605

  Mayer bond orders larger than 0.100000
B(  0-Cl,  1-I ) :   1.0419

----------------------------------------------------------------------------------------------------
                     ABSORPTION SPECTRUM VIA TRANSITION ELECTRIC DIPOLE MOMENTS
----------------------------------------------------------------------------------------------------
     Transition      Energy     Energy  Wavelength fosc(D2)      D2        DX        DY        DZ
                      (eV)      (cm-1)    (nm)                 (au**2)    (au)      (au)      (au)
----------------------------------------------------------------------------------------------------
  0-1A  ->  1-1A    2.641042   21301.4   469.5   0.000111611   0.00172   0.00000  -0.04126   0.00472
  0-1A  ->  2-1A    2.641042   21301.4   469.5   0.000111611   0.00172   0.00000  -0.00472  -0.04126
  0-1A  ->  3-1A    5.000847   40334.6   247.9   0.002143808   0.01750   0.00000   0.04861   0.12302
  0-1A  ->  4-1A    5.000847   40334.6   247.9   0.002143808   0.01750  -0.00000  -0.12302   0.04861
  0-1A  ->  5-1A    8.108474   65399.3   152.9   0.907450245   4.56799   2.13729  -0.00000   0.00000
  0-1A  ->  6-1A    9.992215   80592.7   124.1   0.006989995   0.02855  -0.00000  -0.16816   0.01657
  0-1A  ->  7-1A    9.992215   80592.7   124.1   0.006989995   0.02855   0.00000   0.01657   0.16816
  0-1A  ->  8-1A   10.452836   84307.8   118.6   0.000000000   0.00000  -0.00000  -0.00000   0.00000
  0-1A  ->  9-1A   10.454167   84318.6   118.6   0.000000000   0.00000   0.00000  -0.00000   0.00000
  0-1A  -> 10-1A   10.576760   85307.3   117.2   0.000000000   0.00000  -0.00000  -0.00000  -0.00000
  0-1A  -> 11-1A   11.322969   91325.9   109.5   0.477207169   1.72024   1.31158  -0.00000  -0.00000
  0-1A  -> 12-1A   11.343964   91495.3   109.3   0.000000000   0.00000  -0.00000  -0.00000  -0.00000
  0-1A  -> 13-1A   11.345116   91504.5   109.3   0.000000000   0.00000  -0.00000  -0.00000   0.00000
  0-1A  -> 14-1A   11.356683   91597.8   109.2   0.000000000   0.00000  -0.00000   0.00000  -0.00000
  0-1A  -> 15-1A   11.430255   92191.2   108.5   0.000005323   0.00002   0.00000   0.00297   0.00319
  0-1A  -> 16-1A   11.430255   92191.2   108.5   0.000005323   0.00002  -0.00000  -0.00319   0.00297
  0-1A  -> 17-1A   11.708861   94438.3   105.9   0.067615469   0.23571   0.00000   0.48472  -0.02742
  0-1A  -> 18-1A   11.708861   94438.3   105.9   0.067615469   0.23571  -0.00000  -0.02742  -0.48472
  0-1A  -> 19-1A   12.524480  101016.8    99.0   0.033653174   0.10968   0.00000  -0.18894   0.27199
  0-1A  -> 20-1A   12.524480  101016.8    99.0   0.033653171   0.10968   0.00000  -0.27199  -0.18894
  0-1A  -> 21-1A   12.739877  102754.0    97.3   0.747284888   2.39421  -0.00000  -1.02288  -1.16100
  0-1A  -> 22-1A   12.739877  102754.0    97.3   0.747284889   2.39421  -0.00000  -1.16100   1.02288
  0-1A  -> 23-1A   13.024825  105052.3    95.2   1.523384922   4.77397   2.18494  -0.00000  -0.00000
  0-1A  -> 24-1A   13.159479  106138.4    94.2   0.000000000   0.00000  -0.00000  -0.00000   0.00000
  0-1A  -> 25-1A   13.159695  106140.1    94.2   0.000000000   0.00000   0.00000   0.00000   0.00000
  0-1A  -> 26-1A   13.184667  106341.5    94.0   0.000000000   0.00000   0.00000  -0.00000  -0.00000
  0-1A  -> 27-1A   13.446499  108453.3    92.2   0.135093837   0.41008  -0.64037   0.00000  -0.00000
  0-1A  -> 28-1A   13.824609  111503.0    89.7   0.000000000   0.00000  -0.00000  -0.00000   0.00000
  0-1A  -> 29-1A   13.854084  111740.7    89.5   0.000000000   0.00000   0.00002  -0.00000  -0.00000
  0-1A  -> 30-1A   13.855086  111748.8    89.5   0.000000000   0.00000  -0.00001   0.00000  -0.00000

FINAL SINGLE POINT ENERGY      -757.777166030751

DIPOLE MOMENT
-------------

Method             : SCF
Type of density    : Electron Density
Multiplicity       :   1
Irrep              :   0
Energy             :  -757.8742225494765989 Eh
Relativity type    :
Basis              : AO
                                X                 Y                 Z
Electronic contribution:     35.784197762      -0.000000011       0.000000002
Nuclear contribution   :    -34.921303844       0.000000000       0.000000000
                        -----------------------------------------
Total Dipole Moment    :      0.862893918      -0.000000011       0.000000002
                        -----------------------------------------
Magnitude (a.u.)       :      0.862893918
Magnitude (Debye)      :      2.193302035

Rotational constants in cm-1:             0.000000             0.109172             0.109172
Rotational constants in MHz :             0.000000          3272.905959          3272.905959

                             ****ORCA TERMINATED NORMALLY****
TOTAL RUN TIME: 0 days 0 hours 0 minutes 12 seconds 59 msec
