                         Program Version 6.0.0  -   RELEASE  -
|  1> !B3LYP def2-TZVP OPT FREQ
|  2>
|  3> %CPCM SMD TRUE
|  4>       SMDSOLVENT "CH2Cl2"
|  5> END
|  6>
|  7> *xyz 0 1
|  8> Cl      -3.1638322322      0.2923041139      0.0000000000
|  9> I       -0.7456030433      0.2923041139      0.0000000000
| 10> **                         ****END OF INPUT****
 Total Charge           Charge          ....    0
 Multiplicity           Mult            ....    1
 Number of Electrons    NEL             ....   42
FINAL SINGLE POINT ENERGY      -757.873464912654
FINAL SINGLE POINT ENERGY      -757.874211040486
FINAL SINGLE POINT ENERGY      -757.874222640054
FINAL SINGLE POINT ENERGY      -757.874222821152
                    ***********************HURRAY********************

CARTESIAN COORDINATES (ANGSTROEM)
---------------------------------
  Cl    -3.134997    0.292304    0.000000
  I     -0.774438    0.292304    0.000000

 Multiplicity           Mult            ....    1
 Number of Electrons    NEL             ....   42
 Basis Dimension        Dim             ....   87

ORBITAL ENERGIES
----------------

  NO   OCC          E(Eh)            E(eV)
   0   2.0000    -101.536723     -2762.9547
   1   2.0000      -9.467520      -257.6243
   2   2.0000      -7.230088      -196.7407
   3   2.0000      -7.219970      -196.4654
   4   2.0000      -7.219970      -196.4654
   5   2.0000      -6.873924      -187.0490
   6   2.0000      -4.905299      -133.4800
   7   2.0000      -4.882821      -132.8683
   8   2.0000      -4.882821      -132.8683
   9   2.0000      -1.950906       -53.0869
  10   2.0000      -1.944837       -52.9217
  11   2.0000      -1.944837       -52.9217
  12   2.0000      -1.926359       -52.4189
  13   2.0000      -1.926330       -52.4181
  14   2.0000      -0.838608       -22.8197
  15   2.0000      -0.685583       -18.6557
  16   2.0000      -0.405226       -11.0268
  17   2.0000      -0.353794        -9.6272
  18   2.0000      -0.353794        -9.6272
  19   2.0000      -0.263936        -7.1821
  20   2.0000      -0.263936        -7.1821
  21   0.0000      -0.123506        -3.3608
  22   0.0000       0.148996         4.0544
  23   0.0000       0.168630         4.5887
  24   0.0000       0.168630         4.5887
  25   0.0000       0.205640         5.5957

MULLIKEN ATOMIC CHARGES
-----------------------
   0 Cl:   -0.231773
   1 I :    0.231773
Sum of atomic charges:   -0.0000000

LOEWDIN ATOMIC CHARGES
----------------------
   0 Cl:   -0.110575
   1 I :    0.110575

  Mayer bond orders larger than 0.100000
B(  0-Cl,  1-I ) :   1.0419

FINAL SINGLE POINT ENERGY      -757.874222824536

DIPOLE MOMENT
-------------

Method             : SCF
Type of density    : Electron Density
Multiplicity       :   1
Irrep              :   0
Energy             :  -757.8742228245355363 Eh
Relativity type    :
Basis              : AO
                                X                 Y                 Z
Electronic contribution:     35.784085970      -0.000000009       0.000000002
Nuclear contribution   :    -34.921303844       0.000000000       0.000000000
                        -----------------------------------------
Total Dipole Moment    :      0.862782125      -0.000000009       0.000000002
                        -----------------------------------------
Magnitude (a.u.)       :      0.862782125
Magnitude (Debye)      :      2.193017880

VIBRATIONAL FREQUENCIES
-----------------------

Scaling factor for frequencies =  1.000000000  (already applied!)

     0:       0.00 cm**-1
     1:       0.00 cm**-1
     2:       0.00 cm**-1
     3:       0.00 cm**-1
     4:       0.00 cm**-1
     5:     363.68 cm**-1

IR SPECTRUM
-----------

 Mode   freq       eps      Int      T**2         TX        TY        TZ
       cm**-1   L/(mol*cm) km/mol    a.u.
----------------------------------------------------------------------------
  5:    363.68   0.003829   19.35  0.003286  ( 0.057321 -0.000000 -0.000000)

--------------------------
THERMOCHEMISTRY AT 298.15K
--------------------------

Temperature         ...   298.15 K
Pressure            ...     1.00 atm
Total Mass          ...   162.35 AMU
Quasi RRHO          ...     True
Cut-Off Frequency   ...     1.00 cm^-1
The molecule is recognized as being linear

Throughout the following assumptions are being made:
  (1) The electronic state is orbitally nondegenerate
  (2) There are no thermally accessible electronically excited states
  (3) Hindered rotations indicated by low frequency modes are not
      treated as such but are treated as vibrations and this may
      cause some error
  (4) All equations used are the standard statistical mechanics
      equations for an ideal gas
  (5) All vibrations are strictly harmonic

freq.     363.68  E(vib)   ...       0.22

------------
INNER ENERGY
------------

The inner energy is: U= E(el) + E(ZPE) + E(vib) + E(rot) + E(trans)
    E(el)   - is the total energy from the electronic structure calculation
              = E(kin-el) + E(nuc-el) + E(el-el) + E(nuc-nuc)
    E(ZPE)  - the the zero temperature vibrational energy from the frequency calculation
    E(vib)  - the the finite temperature correction to E(ZPE) due to population
              of excited vibrational states
    E(rot)  - is the rotational thermal energy
    E(trans)- is the translational thermal energy

Summary of contributions to the inner energy U:
Electronic energy                ...   -757.87422282 Eh
Zero point energy                ...      0.00082852 Eh       0.52 kcal/mol
Thermal vibrational correction   ...      0.00034643 Eh       0.22 kcal/mol
Thermal rotational correction    ...      0.00094418 Eh       0.59 kcal/mol
Thermal translational correction ...      0.00141627 Eh       0.89 kcal/mol
-----------------------------------------------------------------------
Total thermal energy                   -757.87068742 Eh

Summary of corrections to the electronic energy:
(perhaps to be used in another calculation)
Total thermal correction                  0.00270688 Eh       1.70 kcal/mol
Non-thermal (ZPE) correction              0.00082852 Eh       0.52 kcal/mol
-----------------------------------------------------------------------
Total correction                          0.00353541 Eh       2.22 kcal/mol

--------
ENTHALPY
--------

The enthalpy is H = U + kB*T
                kB is Boltzmann's constant
Total thermal energy              ...   -757.87068742 Eh
Thermal Enthalpy correction       ...      0.00094421 Eh       0.59 kcal/mol
-----------------------------------------------------------------------
Total Enthalpy                    ...   -757.86974321 Eh

Note: Rotational entropy computed according to Herzberg
Infrared and Raman Spectra, Chapter V,1, Van Nostrand Reinhold, 1945
Point Group:  C(inf)v, Symmetry Number:   1
Rotational constants in cm-1:     0.000000     0.109172     0.109172

Vibrational entropy computed according to the QRRHO of S. Grimme
Chem.Eur.J. 2012 18 9955 using a reference frequency of 100.0 cm-1

-------
ENTROPY
-------

The entropy contributions are T*S = T*(S(el)+S(vib)+S(rot)+S(trans))
     S(el)   - electronic entropy
     S(vib)  - vibrational entropy
     S(rot)  - rotational entropy
     S(trans)- translational entropy
The entropies will be listed as multiplied by the temperature to get
units of energy

Electronic entropy                ...      0.00000000 Eh      0.00 kcal/mol
Vibrational entropy               ...      0.00052693 Eh      0.33 kcal/mol
Rotational entropy                ...      0.00807146 Eh      5.06 kcal/mol
Translational entropy             ...      0.01955757 Eh     12.27 kcal/mol
-----------------------------------------------------------------------
Final entropy term                ...      0.02815596 Eh     17.67 kcal/mol

-------------------
GIBBS FREE ENERGY
-------------------

The Gibbs free energy is G = H - T*S

Total enthalpy                    ...   -757.86974321 Eh
Total entropy correction          ...     -0.02815596 Eh    -17.67 kcal/mol
-----------------------------------------------------------------------
Final Gibbs free energy         ...   -757.89789917 Eh

For completeness - the Gibbs free energy minus the electronic energy
G-E(el)                           ...     -0.02367635 Eh    -14.86 kcal/mol

                             ****ORCA TERMINATED NORMALLY****
TOTAL RUN TIME: 0 days 0 hours 1 minutes 10 seconds 460 msec
